% Model:              modelprojet_V4.mph
% Version:            COMSOL 5.4.0.388
% Date:               Jun 24 2020, 10:12
% Dimension:          0
% Nodes:              1
% Expressions:        21
% Description:        Temperature
% T (K) @ t=0             T (K) @ t=0.1            T (K) @ t=0.2            T (K) @ t=0.3            T (K) @ t=0.4            T (K) @ t=0.5            T (K) @ t=0.6            T (K) @ t=0.7            T (K) @ t=0.8            T (K) @ t=0.9            T (K) @ t=1              T (K) @ t=1.1            T (K) @ t=1.2            T (K) @ t=1.3            T (K) @ t=1.4            T (K) @ t=1.5            T (K) @ t=1.6            T (K) @ t=1.7            T (K) @ t=1.8            T (K) @ t=1.9            T (K) @ t=2
293.1500177452769         361.71117298560796       350.52332372859877       327.55569364939686       307.6372650997954        298.22560446608094       294.4625175011756        292.9517564013089        292.62671649554335       292.54886878924333       292.67619935376024       292.78185165390596       292.86008162424935       292.9230679729142        292.96885530674217       293.00503792973944       293.0327174296551        293.0566243214201        293.0777588335868        293.0968888772218        293.1143451392242
