% Model:              modelprojet_V4.mph
% Version:            COMSOL 5.4.0.388
% Date:               Jun 24 2020, 09:51
% Dimension:          0
% Nodes:              1
% Expressions:        11
% Description:        Temperature
% T (K) @ t=0             T (K) @ t=0.1            T (K) @ t=0.2            T (K) @ t=0.3            T (K) @ t=0.4            T (K) @ t=0.5            T (K) @ t=0.6            T (K) @ t=0.7            T (K) @ t=0.8            T (K) @ t=0.9            T (K) @ t=1
293.1500102014803         361.7060445218075        350.52286749014746       327.60158379718234       307.6347619916723        298.2140268870712        294.46750134905136       292.98536464097276       292.59850150617046       292.5899407039951        292.6779986746785
