% Model:              modelprojet_V4.mph
% Version:            COMSOL 5.4.0.388
% Date:               Jun 24 2020, 10:12
% Dimension:          0
% Nodes:              1
% Expressions:        21
% Description:        Temperature
% T (K) @ t=0             T (K) @ t=0.1            T (K) @ t=0.2            T (K) @ t=0.3            T (K) @ t=0.4            T (K) @ t=0.5            T (K) @ t=0.6            T (K) @ t=0.7            T (K) @ t=0.8            T (K) @ t=0.9            T (K) @ t=1              T (K) @ t=1.1            T (K) @ t=1.2            T (K) @ t=1.3            T (K) @ t=1.4            T (K) @ t=1.5            T (K) @ t=1.6            T (K) @ t=1.7            T (K) @ t=1.8            T (K) @ t=1.9            T (K) @ t=2
293.1500018001195         366.8903238906368        374.0722737752959        374.939604618878         368.45101005193425       361.65558412860884       356.6182417935261        352.27687816390846       348.44655396133845       345.01095306224425       341.93398922660754       339.1472889421151        336.6046453580536        334.283797030296         332.1703562680114        330.22479220665383       328.43958951031965       326.77729088475616       325.2302236836438        323.7747883350402        322.4055487931151
