% Model:              modelprojet_V3.mph
% Version:            COMSOL 5.4.0.388
% Date:               Jun 24 2020, 22:50
% Dimension:          0
% Nodes:              1
% Expressions:        21
% Description:        Temperature
% T (K) @ v0=0            T (K) @ v0=0.1           T (K) @ v0=0.2           T (K) @ v0=0.3           T (K) @ v0=0.4           T (K) @ v0=0.5           T (K) @ v0=0.6           T (K) @ v0=0.7           T (K) @ v0=0.8           T (K) @ v0=0.9           T (K) @ v0=1             T (K) @ v0=1.1           T (K) @ v0=1.2           T (K) @ v0=1.3           T (K) @ v0=1.4           T (K) @ v0=1.5           T (K) @ v0=1.6           T (K) @ v0=1.7           T (K) @ v0=1.8           T (K) @ v0=1.9           T (K) @ v0=2
365.2634097974487         363.7299341477834        354.6540317861447        349.0651709587047        344.98181440992346       341.77666467694905       339.1492737639731        336.933293605075         335.02500161037386       333.35632048510774       331.8809682429663        330.56240351038093       329.3713281149785        328.2853667016571        327.2854051842497        326.3576126987405        325.4955455186646        324.69130615514166       323.9401635014305        323.2299253458133        322.55585774859156
