% Model:              modelprojet_V3.mph
% Version:            COMSOL 5.4.0.388
% Date:               Jun 24 2020, 22:50
% Dimension:          0
% Nodes:              1
% Expressions:        21
% Description:        Temperature
% T (K) @ v0=0            T (K) @ v0=0.1           T (K) @ v0=0.2           T (K) @ v0=0.3           T (K) @ v0=0.4           T (K) @ v0=0.5           T (K) @ v0=0.6           T (K) @ v0=0.7           T (K) @ v0=0.8           T (K) @ v0=0.9           T (K) @ v0=1             T (K) @ v0=1.1           T (K) @ v0=1.2           T (K) @ v0=1.3           T (K) @ v0=1.4           T (K) @ v0=1.5           T (K) @ v0=1.6           T (K) @ v0=1.7           T (K) @ v0=1.8           T (K) @ v0=1.9           T (K) @ v0=2
365.6477991571999         302.1940370385584        294.2180223983027        293.11660684918013       292.99640190750904       293.03074146958664       293.07701164948384       293.1101642104943        293.1312378922317        293.1424270795615        293.14974675390135       293.153984849639         293.15731553858194       293.1595466177673        293.1626008299787        293.16601558127604       293.1696218881139        293.1742391846694        293.17851496968393       293.18126172116047       293.1840294592961
